 Entering Gaussian System 
 *********************************************
 Gaussian 98:
 frequency fake output
 *********************************************
                         Standard orientation:
 --------------------------------------------------------------------
  Center     Atomic     Atomic              Coordinates (Angstroms)  
  Number     Number      Type              X           Y           Z 
 --------------------------------------------------------------------
    1          6             0       -4.549884  -22.305977   -2.037565 
    2          1             0       -5.426334  -24.429028    1.626844 
    3          6             0      -10.591279  -26.826968   -2.771503 
    4          1             0      -11.548888  -26.295138   -2.688270 
    5          1             0      -10.550562  -27.613400   -2.008242 
    6          1             0      -10.540241  -27.293587   -3.765319 
    7          6             0       -4.427614  -23.680686   -1.365342 
    8          6             0       -4.658660  -23.564188    0.146116 
    9          7             0       -5.256971  -24.681386   -2.009433 
   10          8             0       -4.219089  -22.659047    0.832289 
   11          1             0       -3.392882  -24.055005   -1.466463 
   12          1             0       -6.261988  -24.504098   -2.085492 
   13          7             0       -9.397751  -24.834365   -3.591002 
   14          8             0       -7.990615  -27.469274   -1.477002 
   15          1             0       -9.539210  -25.350702   -1.586705 
   16          1             0       -9.831295  -25.052216   -4.494566 
   17          6             0       -5.731168  -26.864014   -3.085476 
   18          6             0       -4.730782  -25.850643   -2.473540 
   19          6             0       -7.839519  -24.403561   -8.908158 
   20          1             0       -8.019060  -23.339922   -9.118070 
   21          1             0       -8.062947  -24.977393   -9.817869 
   22          1             0       -6.781146  -24.541510   -8.655416 
   23          6             0       -9.628094  -21.477648   -4.298038 
   24          1             0       -9.366578  -21.055499   -3.319874 
   25          6             0       -5.189039  -27.431794   -4.401347 
   26          1             0       -5.802014  -28.283771   -4.725613 
   27          1             0       -4.153547  -27.762713   -4.256967 
   28          1             0       -5.206282  -26.667682   -5.192198 
   29          1             0       -5.595801  -21.967950   -2.032885 
   30          1             0       -4.208952  -22.376488   -3.078340 
   31          8             0       -5.378365  -24.596268    0.662137 
   32          1             0       -3.937633  -21.568608   -1.503892 
   33          7             0       -7.076741  -26.326661   -3.243973 
   34          8             0       -3.529146  -26.129116   -2.406419 
   35          1             0       -5.816783  -27.668020   -2.336853 
   36          1             0       -7.247483  -25.694395   -4.031774 
   37          1             0      -10.683038  -21.785230   -4.282002 
   38          1             0       -9.509155  -20.698065   -5.063000 
   39          6             0       -9.421769  -25.864134   -2.554024 
   40          6             0       -8.090361  -26.642935   -2.386861 
   41          6             0      -13.611454  -20.445954   -8.711195 
   42          1             0      -13.638704  -19.569126   -9.371910 
   43          1             0       -7.664215  -22.325045   -4.635821 
   44          1             0      -13.458325  -20.105876   -7.679734 
   45          1             0      -14.582012  -20.957266   -8.775440 
   46          1             0       -9.933136  -23.013799   -6.327041 
   47          6             0      -16.668112  -20.266286  -13.487009 
   48          6             0      -15.966013  -21.394877  -12.701673 
   49          7             0      -17.060444  -20.722961  -14.834676 
   50          8             0      -15.397332  -21.175086  -11.622536 
   51          1             0      -15.944309  -19.433182  -13.521134 
   52          1             0      -17.956852  -20.320967  -15.111323 
   53          6             0      -15.704776  -23.854698  -12.566428 
   54          6             0      -14.226964  -23.940547  -12.137589 
   55          7             0      -16.035599  -22.623059  -13.283358 
   56          8             0      -13.896396  -24.669696  -11.194821 
   57          1             0      -16.257399  -23.872561  -11.613473 
   58          1             0      -16.593214  -22.638608  -14.146410 
   59          6             0      -11.921426  -23.136091  -12.495277 
   60          6             0      -11.657278  -22.591247  -11.073383 
   61          7             0      -13.337939  -23.196822  -12.845921 
   62          8             0      -10.570828  -22.838574  -10.530346 
   63          1             0      -11.528725  -24.163800  -12.463749 
   64          1             0      -13.701713  -22.578442  -13.567810 
   65          6             0      -13.264504  -26.133844   -8.039761 
   66          1             0      -14.344441  -25.951630   -8.124804 
   67          1             0      -13.100947  -26.965641   -7.343848 
   68          1             0      -12.883539  -26.419386   -9.029972 
   69          6             0      -17.894062  -19.807628  -12.686102 
   70          1             0      -18.339267  -18.914971  -13.148249 
   71          1             0      -17.607799  -19.560309  -11.657083 
   72          1             0      -18.655572  -20.602076  -12.653847 
   73          6             0      -16.090349  -25.078992  -13.403198 
   74          1             0      -15.552484  -25.089832  -14.362097 
   75          1             0      -17.170939  -25.085011  -13.604147 
   76          1             0      -15.837815  -25.993624  -12.852980 
   77          6             0      -11.146466  -22.324308  -13.536698 
   78          1             0      -10.086975  -22.289822  -13.256301 
   79          1             0      -11.519775  -21.290513  -13.593339 
   80          1             0      -11.227669  -22.788156  -14.529861 
   81          6             0      -12.464318  -21.380682   -9.106288 
   82          6             0      -12.308414  -22.514705   -8.069444 
   83          7             0      -12.635595  -21.865758  -10.475862 
   84          8             0      -11.804967  -22.260376   -6.965224 
   85          1             0      -11.508728  -20.837764   -9.048098 
   86          1             0      -13.539316  -21.710479  -10.939711 
   87          6             0      -12.550348  -24.887686   -7.508448 
   88          6             0      -11.070285  -25.200052   -7.197147 
   89          7             0      -12.729352  -23.757361   -8.417969 
   90          8             0      -10.793991  -25.881157   -6.198459 
   91          1             0      -12.970068  -24.612328   -6.528748 
   92          1             0      -13.104233  -23.938809   -9.354483 
   93          6             0       -8.702693  -24.891344   -7.741294 
   94          6             0       -8.250473  -24.232670   -6.418764 
   95          7             0      -10.122652  -24.701510   -8.031673 
   96          8             0       -7.193473  -24.602529   -5.887355 
   97          1             0       -8.524310  -25.964418   -7.572863 
   98          1             0      -10.383602  -24.105558   -8.823949 
   99          6             0       -8.709719  -22.666019   -4.594762 
  100          6             0       -8.724446  -23.668100   -3.417197 
  101          7             0       -9.044741  -23.269881   -5.882550 
  102          8             0       -8.128927  -23.377160   -2.368886 
  103          1             0      -16.375690  -20.449870  -15.541098 
 --------------------------------------------------------------------
     1 basis functions        1 primitive gaussians 
     1 alpha electrons        1 beta electrons

 Harmonic frequencies (cm**-1), IR intensities (KM/Mole), 
 Raman scattering activities (A**4/amu), Raman depolarization ratios, 
 reduced masses (AMU), force constants (mDyne/A) and normal coordinates: 
                      1                      2                     3 
                     a                      a                      a  
 Frequencies --  1663.6908              1667.0875              1654.0634 
 Red. masses --     0.0000                 0.0000                 0.0000 
 Frc consts  --     0.0000                 0.0000                 0.0000 
 IR Inten    --     0.0000                 0.0000                 0.0000 
 Raman Activ --     0.0000                 0.0000                 0.0000 
 Depolar     --     0.0000                 0.0000                 0.0000 
 Atom AN      X      Y      Z        X      Y      Z        X      Y      Z 
   1   6    -0.00  -0.00  -0.00     0.00  -0.00  -0.00    -0.00  -0.00  -0.00 
   2   1    -0.00  -0.00   0.00    -0.00  -0.00   0.00    -0.00  -0.00   0.00 
   3   6     0.00   0.00  -0.00    -0.00   0.00  -0.00     0.00   0.00  -0.00 
   4   1    -0.00  -0.00   0.00     0.00  -0.00   0.00    -0.00   0.00   0.00 
   5   1    -0.00  -0.00  -0.00    -0.00  -0.00  -0.00    -0.00  -0.00  -0.00 
   6   1     0.00  -0.00   0.00     0.00  -0.00   0.00     0.00  -0.00   0.00 
   7   6     0.00  -0.00   0.00     0.00   0.00   0.00     0.00   0.00   0.00 
   8   6    -0.00  -0.00  -0.00    -0.00  -0.00  -0.00    -0.00  -0.00  -0.00 
   9   7     0.00   0.00   0.00     0.00  -0.00  -0.00    -0.00  -0.00  -0.00 
  10   8     0.00   0.00   0.00     0.00   0.00   0.00     0.00   0.00   0.00 
  11   1     0.00   0.00  -0.00     0.00   0.00  -0.00     0.00  -0.00  -0.00 
  12   1    -0.00  -0.00  -0.00    -0.00  -0.00   0.00    -0.00   0.00   0.00 
  13   7     0.00   0.00  -0.00    -0.00  -0.00   0.00    -0.00  -0.00   0.00 
  14   8    -0.00   0.00  -0.00    -0.00   0.00  -0.00     0.00  -0.00  -0.00 
  15   1    -0.00   0.00  -0.00    -0.00  -0.00   0.00    -0.00   0.00   0.00 
  16   1    -0.00  -0.00   0.00     0.00   0.00  -0.00    -0.00   0.01  -0.00 
  17   6     0.00  -0.00   0.00     0.00  -0.00  -0.00    -0.00  -0.00   0.00 
  18   6    -0.00  -0.00  -0.00     0.00   0.00   0.00     0.00   0.00   0.00 
  19   6    -0.00  -0.00  -0.00     0.00   0.00   0.00    -0.01  -0.00  -0.00 
  20   1     0.00   0.00   0.00    -0.01  -0.00  -0.00     0.04   0.01   0.03 
  21   1     0.00  -0.00   0.00    -0.00   0.00  -0.00     0.02  -0.03   0.01 
  22   1     0.00   0.00  -0.00    -0.00  -0.00   0.00     0.01   0.02  -0.02 
  23   6    -0.00  -0.00  -0.00     0.00  -0.00  -0.00     0.00  -0.00   0.00 
  24   1    -0.00   0.00  -0.00    -0.00   0.00  -0.00     0.00  -0.00  -0.00 
  25   6    -0.00   0.00   0.00    -0.00   0.00   0.00    -0.00  -0.00   0.00 
  26   1     0.00  -0.00   0.00     0.00  -0.00   0.00     0.00  -0.00   0.00 
  27   1     0.00   0.00  -0.00     0.00   0.00  -0.00     0.00   0.00  -0.00 
  28   1     0.00  -0.00   0.00     0.00   0.00   0.00     0.00   0.00   0.00 
  29   1     0.00   0.00   0.00     0.00   0.00   0.00     0.00   0.00   0.00 
  30   1     0.00   0.00   0.00     0.00   0.00   0.00     0.00   0.00   0.00 
  31   8     0.00   0.00   0.00     0.00   0.00   0.00     0.00   0.00   0.00 
  32   1    -0.00   0.00  -0.00    -0.00   0.00  -0.00    -0.00   0.00  -0.00 
  33   7    -0.00  -0.00   0.00    -0.00  -0.00   0.00     0.00  -0.00  -0.00 
  34   8    -0.00   0.00   0.00    -0.00  -0.00  -0.00    -0.00  -0.00  -0.00 
  35   1    -0.00  -0.00  -0.00    -0.00  -0.00  -0.00     0.00  -0.00  -0.00 
  36   1    -0.00   0.00  -0.00     0.00   0.00  -0.00    -0.00   0.00   0.00 
  37   1     0.00  -0.00   0.00     0.00  -0.00   0.00    -0.00   0.00  -0.01 
  38   1     0.00   0.00   0.00     0.00   0.00   0.00    -0.00  -0.00  -0.00 
  39   6    -0.00  -0.00   0.00     0.00   0.00   0.00     0.00  -0.00   0.00 
  40   6     0.00  -0.00  -0.00     0.00  -0.00  -0.00    -0.00   0.00   0.00 
  41   6     0.00  -0.00  -0.01     0.00  -0.00  -0.00     0.01   0.00   0.01 
  42   1     0.03   0.02   0.02    -0.01  -0.00  -0.00     0.03  -0.01  -0.00 
  43   1    -0.00   0.00  -0.00    -0.00   0.00  -0.00    -0.00  -0.00  -0.00 
  44   1    -0.03   0.01  -0.00    -0.00  -0.00  -0.00    -0.06   0.04   0.01 
  45   1     0.01  -0.01   0.05    -0.01   0.02  -0.00     0.03  -0.03   0.01 
  46   1    -0.00  -0.00  -0.00     0.00   0.00  -0.00    -0.01   0.03   0.04 
  47   6     0.03  -0.00   0.05     0.00   0.00   0.00     0.00  -0.00   0.00 
  48   6    -0.33  -0.16  -0.62     0.00  -0.01   0.00     0.00   0.00   0.00 
  49   7     0.01  -0.00   0.01    -0.00   0.00  -0.00    -0.00   0.00  -0.00 
  50   8     0.19   0.07   0.36    -0.00   0.00  -0.00    -0.00   0.00  -0.00 
  51   1    -0.14   0.10  -0.15    -0.00   0.00  -0.00    -0.00   0.00  -0.00 
  52   1     0.01   0.01   0.03    -0.01  -0.00   0.02    -0.00   0.00   0.00 
  53   6    -0.01   0.02  -0.02     0.02  -0.03   0.04    -0.00  -0.00   0.00 
  54   6    -0.03  -0.01   0.00    -0.14   0.43  -0.55     0.00   0.00   0.00 
  55   7     0.05   0.03   0.08     0.01   0.00   0.01     0.00  -0.00  -0.00 
  56   8     0.01   0.00   0.00     0.11  -0.24   0.32    -0.00  -0.00  -0.00 
  57   1     0.06  -0.15   0.00    -0.25   0.09  -0.15     0.00  -0.00   0.00 
  58   1    -0.07   0.35   0.08     0.02  -0.03   0.01    -0.00   0.00   0.00 
  59   6    -0.00  -0.00   0.01    -0.03   0.00  -0.01     0.04  -0.00   0.02 
  60   6     0.01  -0.01  -0.02     0.01  -0.01  -0.03    -0.62   0.17  -0.26 
  61   7     0.03   0.02  -0.01     0.01  -0.06   0.07     0.01  -0.00   0.01 
  62   8    -0.00   0.00   0.00     0.00   0.00   0.01     0.35  -0.08   0.18 
  63   1     0.01   0.00   0.01     0.12   0.08   0.00    -0.13  -0.06  -0.25 
  64   1    -0.15  -0.08   0.01    -0.30  -0.13   0.12     0.01   0.00   0.02 
  65   6     0.00  -0.00   0.00    -0.00   0.00  -0.00     0.00   0.00  -0.00 
  66   1     0.00  -0.00  -0.01    -0.00  -0.01   0.04    -0.00  -0.01  -0.01 
  67   1     0.00   0.00   0.00    -0.01  -0.02  -0.02    -0.00   0.00  -0.00 
  68   1    -0.00   0.00  -0.00     0.03  -0.03   0.02    -0.02  -0.01  -0.00 
  69   6     0.01  -0.00  -0.01    -0.00   0.00  -0.00    -0.00   0.00  -0.00 
  70   1    -0.07   0.02   0.10    -0.00   0.00   0.00    -0.00  -0.00   0.00 
  71   1    -0.05   0.07  -0.02     0.00  -0.00  -0.00     0.00  -0.00  -0.00 
  72   1    -0.01   0.02  -0.00     0.00  -0.00   0.00    -0.00   0.00  -0.00 
  73   6     0.00  -0.01   0.01     0.00   0.02   0.01    -0.00   0.00  -0.00 
  74   1     0.02   0.02   0.02    -0.02  -0.01  -0.00     0.00  -0.00   0.00 
  75   1     0.00   0.01   0.02     0.01  -0.10  -0.03     0.00  -0.00  -0.00 
  76   1    -0.02  -0.05  -0.05    -0.07  -0.02  -0.03     0.00   0.00  -0.00 
  77   6    -0.00  -0.00   0.00     0.01  -0.01   0.01    -0.01  -0.01   0.01 
  78   1    -0.00   0.01  -0.01     0.02   0.04  -0.05     0.01  -0.01  -0.08 
  79   1     0.01   0.00  -0.01    -0.01  -0.01   0.03     0.01  -0.01  -0.02 
  80   1     0.00   0.01  -0.00    -0.01  -0.01   0.01     0.09   0.06  -0.03 
  81   6     0.00  -0.00  -0.00     0.01  -0.01  -0.00    -0.01  -0.01  -0.03 
  82   6    -0.00  -0.01   0.00     0.00   0.02  -0.01    -0.00   0.04  -0.00 
  83   7     0.00   0.01   0.02    -0.02   0.01   0.02     0.09  -0.03   0.02 
  84   8    -0.00   0.00  -0.00    -0.00  -0.00   0.00     0.00  -0.01   0.01 
  85   1    -0.00   0.01  -0.01     0.01  -0.00   0.01    -0.07   0.04   0.13 
  86   1    -0.01  -0.05  -0.09     0.06  -0.05  -0.14     0.18  -0.21  -0.26 
  87   6    -0.00  -0.00   0.00     0.00   0.00   0.00     0.00   0.01   0.00 
  88   6    -0.00   0.00   0.00     0.01   0.00  -0.00    -0.03  -0.00   0.01 
  89   7     0.00   0.01  -0.00    -0.00  -0.02   0.01    -0.00  -0.03  -0.00 
  90   8    -0.00   0.00  -0.00    -0.00  -0.00  -0.00     0.00   0.00  -0.00 
  91   1    -0.00   0.00  -0.00    -0.01   0.00  -0.00     0.01  -0.01   0.01 
  92   1    -0.00  -0.05   0.01     0.01   0.10  -0.06    -0.01   0.17  -0.03 
  93   6     0.00   0.00   0.00     0.00   0.00  -0.00    -0.00  -0.00   0.00 
  94   6     0.00  -0.00  -0.00     0.00  -0.00   0.00    -0.00   0.01   0.01 
  95   7     0.00  -0.00   0.00    -0.01  -0.00   0.00     0.02  -0.00  -0.00 
  96   8    -0.00   0.00  -0.00    -0.00   0.00  -0.00    -0.00  -0.00  -0.00 
  97   1    -0.00  -0.00  -0.00    -0.00  -0.00  -0.00    -0.00  -0.00  -0.01 
  98   1    -0.00  -0.00  -0.00     0.05   0.01  -0.01    -0.12   0.01   0.01 
  99   6     0.00   0.00   0.00     0.00  -0.00   0.00    -0.00   0.00   0.00 
 100   6    -0.00  -0.00   0.00     0.00   0.00  -0.00     0.00   0.00  -0.00 
 101   7     0.00   0.00   0.00     0.00   0.00   0.00     0.00  -0.01  -0.01 
 102   8    -0.00   0.00  -0.00    -0.00  -0.00   0.00    -0.00  -0.00  -0.00 
 103   1     0.01  -0.01  -0.00     0.02  -0.01   0.01     0.00   0.00   0.00 
                      4                      5                     6 
                     a                      a                      a  
 Frequencies --  1651.5892              1651.6704              1652.1548 
 Red. masses --     0.0000                 0.0000                 0.0000 
 Frc consts  --     0.0000                 0.0000                 0.0000 
 IR Inten    --     0.0000                 0.0000                 0.0000 
 Raman Activ --     0.0000                 0.0000                 0.0000 
 Depolar     --     0.0000                 0.0000                 0.0000 
 Atom AN      X      Y      Z        X      Y      Z        X      Y      Z 
   1   6    -0.00  -0.00  -0.00     0.00  -0.00  -0.00    -0.00  -0.00   0.00 
   2   1    -0.00  -0.00   0.00    -0.00  -0.00   0.00    -0.00  -0.00   0.00 
   3   6     0.00  -0.00   0.00    -0.00   0.01  -0.00     0.00  -0.00  -0.00 
   4   1    -0.00  -0.00  -0.00     0.00   0.00   0.03    -0.00  -0.00  -0.01 
   5   1    -0.00   0.00   0.01    -0.01  -0.02  -0.03    -0.00   0.00  -0.00 
   6   1    -0.00   0.01  -0.00     0.02  -0.05   0.03    -0.02  -0.00  -0.00 
   7   6     0.00  -0.00  -0.00     0.00   0.00   0.00     0.00   0.00   0.00 
   8   6    -0.00  -0.00  -0.00    -0.00  -0.00  -0.00    -0.00  -0.01  -0.00 
   9   7     0.00   0.00   0.00     0.00  -0.00   0.00    -0.00  -0.01  -0.00 
  10   8     0.00   0.00   0.00     0.00   0.00   0.00     0.00   0.00   0.00 
  11   1     0.00   0.00  -0.00     0.00  -0.00  -0.00    -0.00  -0.00  -0.00 
  12   1    -0.00  -0.01  -0.00    -0.00  -0.00  -0.00     0.01   0.04   0.03 
  13   7     0.00   0.01  -0.00    -0.01  -0.02   0.02    -0.01  -0.03   0.00 
  14   8    -0.00   0.00  -0.00    -0.00   0.00   0.00     0.00  -0.00  -0.00 
  15   1     0.00   0.01  -0.00    -0.01   0.00   0.00     0.01  -0.02   0.02 
  16   1    -0.01  -0.05   0.02     0.03   0.12  -0.08     0.02   0.16  -0.05 
  17   6     0.00  -0.00   0.00     0.00  -0.00  -0.00    -0.00  -0.00   0.00 
  18   6    -0.00  -0.00  -0.00    -0.00   0.00   0.00     0.00   0.01   0.00 
  19   6    -0.00   0.00   0.00     0.01  -0.01   0.01    -0.01  -0.01   0.01 
  20   1     0.01  -0.00  -0.02    -0.01  -0.01   0.04     0.01  -0.01  -0.02 
  21   1     0.00   0.01  -0.01    -0.01  -0.01   0.02     0.10   0.04  -0.04 
  22   1    -0.00   0.00  -0.00     0.03   0.03  -0.06    -0.00  -0.02  -0.08 
  23   6    -0.00  -0.00  -0.01     0.00  -0.00  -0.00     0.01   0.00   0.01 
  24   1    -0.03   0.01   0.00    -0.00  -0.00   0.00    -0.05   0.05   0.00 
  25   6    -0.00   0.00   0.00     0.00   0.00  -0.00    -0.00  -0.00   0.00 
  26   1    -0.00   0.00  -0.00     0.00  -0.00  -0.00    -0.00  -0.00   0.00 
  27   1     0.00   0.00  -0.00    -0.00  -0.01   0.00     0.01   0.03  -0.03 
  28   1     0.00  -0.00  -0.00    -0.00   0.00   0.00     0.05  -0.01  -0.01 
  29   1     0.00   0.00   0.00     0.00   0.00  -0.00    -0.00  -0.00  -0.00 
  30   1     0.00   0.00   0.00    -0.00   0.00  -0.00     0.01   0.01   0.00 
  31   8     0.00   0.00  -0.00    -0.00   0.00   0.00     0.00   0.00   0.00 
  32   1    -0.00   0.00  -0.00    -0.00   0.00   0.00     0.01  -0.00  -0.01 
  33   7     0.00  -0.00   0.00    -0.01   0.00   0.00     0.03  -0.01  -0.00 
  34   8    -0.00   0.00   0.00    -0.00  -0.00  -0.00    -0.00  -0.00  -0.00 
  35   1     0.00  -0.00   0.00    -0.01   0.00  -0.00     0.00  -0.01  -0.00 
  36   1    -0.01  -0.00   0.00     0.06  -0.01  -0.01    -0.14   0.05   0.03 
  37   1     0.01  -0.01   0.05    -0.00   0.02  -0.00     0.02  -0.03   0.01 
  38   1     0.03   0.01   0.02    -0.01   0.00  -0.00     0.02  -0.01  -0.00 
  39   6    -0.00  -0.00   0.00     0.00   0.00   0.00     0.01   0.01   0.00 
  40   6    -0.00  -0.00   0.00     0.01  -0.00  -0.00    -0.03   0.00   0.01 
  41   6     0.01  -0.01  -0.01    -0.00   0.00  -0.00     0.00  -0.00  -0.00 
  42   1    -0.06   0.06   0.08    -0.00   0.00   0.00    -0.00   0.00   0.00 
  43   1    -0.00   0.01  -0.01     0.01  -0.00   0.02    -0.05   0.07   0.12 
  44   1    -0.03   0.07  -0.04     0.00  -0.00  -0.00    -0.00  -0.00   0.00 
  45   1    -0.00   0.02   0.00     0.00  -0.00  -0.00    -0.00   0.00   0.00 
  46   1    -0.01  -0.07  -0.09     0.05  -0.09  -0.14     0.12  -0.27  -0.23 
  47   6     0.00   0.00   0.00     0.00   0.00   0.00     0.00   0.00   0.00 
  48   6     0.00  -0.00  -0.00     0.00  -0.00   0.00     0.00  -0.00  -0.00 
  49   7    -0.00   0.00  -0.00    -0.00   0.00  -0.00    -0.00   0.00  -0.00 
  50   8    -0.00   0.00  -0.00    -0.00   0.00  -0.00    -0.00   0.00  -0.00 
  51   1    -0.00   0.00  -0.00     0.00   0.00  -0.00    -0.00   0.00  -0.00 
  52   1    -0.00  -0.00   0.01    -0.00  -0.00   0.00    -0.00  -0.00   0.00 
  53   6     0.00  -0.00   0.00     0.00  -0.00   0.00     0.00  -0.00   0.00 
  54   6    -0.00  -0.00   0.00     0.00   0.00  -0.00     0.00   0.00   0.00 
  55   7    -0.00   0.00   0.00    -0.00   0.00   0.00    -0.00   0.00  -0.00 
  56   8    -0.00  -0.00  -0.00    -0.00  -0.00  -0.00    -0.00  -0.00  -0.00 
  57   1     0.00   0.00   0.00    -0.00   0.00  -0.00    -0.00  -0.00   0.00 
  58   1     0.00  -0.00  -0.00    -0.00  -0.00  -0.00    -0.00  -0.00  -0.00 
  59   6     0.00   0.00   0.00     0.00   0.00   0.00     0.00  -0.00   0.00 
  60   6     0.00  -0.00   0.00     0.00  -0.00   0.00    -0.00   0.00   0.00 
  61   7     0.00   0.00  -0.00    -0.00  -0.00   0.00    -0.00  -0.00  -0.00 
  62   8    -0.00   0.00  -0.00     0.00   0.00  -0.00     0.00  -0.00  -0.00 
  63   1     0.00   0.00   0.00    -0.00  -0.00  -0.00    -0.00  -0.00  -0.00 
  64   1    -0.00   0.00  -0.00     0.00   0.00  -0.00     0.00   0.00   0.00 
  65   6     0.00  -0.01   0.01     0.00   0.02   0.00    -0.00   0.00  -0.00 
  66   1     0.01   0.02   0.02    -0.02  -0.12  -0.00    -0.00  -0.00  -0.00 
  67   1    -0.03  -0.05  -0.04    -0.08  -0.01  -0.02     0.00   0.00  -0.00 
  68   1     0.03   0.02   0.02    -0.02  -0.01   0.00     0.00  -0.00   0.00 
  69   6    -0.00   0.00  -0.00    -0.00   0.00  -0.00    -0.00   0.00   0.00 
  70   1    -0.00  -0.00  -0.00    -0.00  -0.00  -0.00     0.00  -0.00   0.00 
  71   1     0.00  -0.00  -0.00     0.00  -0.00   0.00     0.00   0.00  -0.00 
  72   1     0.00  -0.00  -0.00     0.00   0.00   0.00     0.00  -0.00  -0.00 
  73   6    -0.00   0.00  -0.00    -0.00   0.00   0.00    -0.00   0.00   0.00 
  74   1    -0.00   0.00  -0.00    -0.00   0.00  -0.00    -0.00   0.00  -0.00 
  75   1     0.00  -0.00  -0.00     0.00  -0.00  -0.00     0.00   0.00  -0.00 
  76   1    -0.00   0.00   0.00     0.00   0.00   0.00     0.00   0.00   0.00 
  77   6    -0.00  -0.00  -0.00    -0.00  -0.00   0.00    -0.00  -0.00  -0.00 
  78   1    -0.00   0.00   0.01     0.00  -0.00  -0.00     0.00   0.00  -0.00 
  79   1     0.00  -0.00  -0.00     0.00  -0.00   0.00     0.00   0.00   0.00 
  80   1    -0.00   0.00  -0.00     0.00   0.00  -0.00     0.00   0.00  -0.00 
  81   6     0.02   0.01   0.05     0.00   0.00   0.00     0.00   0.00   0.00 
  82   6    -0.29  -0.19  -0.60     0.00  -0.00   0.00     0.00   0.00   0.00 
  83   7     0.01  -0.00   0.01    -0.00   0.00   0.00     0.00  -0.00  -0.00 
  84   8     0.16   0.08   0.36    -0.00   0.00  -0.00    -0.00   0.00  -0.00 
  85   1    -0.06   0.14  -0.24     0.00  -0.00   0.00     0.00  -0.00  -0.00 
  86   1     0.00  -0.01   0.03     0.00  -0.00  -0.01    -0.00  -0.00  -0.00 
  87   6    -0.00   0.02  -0.02     0.02  -0.03   0.04     0.00  -0.00   0.00 
  88   6    -0.03  -0.01   0.01    -0.10   0.38  -0.57     0.00   0.00   0.00 
  89   7     0.04   0.04   0.08     0.01  -0.00   0.01    -0.00  -0.00  -0.00 
  90   8     0.01  -0.00   0.01     0.09  -0.22   0.33    -0.00  -0.00  -0.00 
  91   1     0.02  -0.15   0.02    -0.23   0.11  -0.13     0.00  -0.00   0.00 
  92   1     0.08   0.36  -0.02     0.02  -0.02   0.01    -0.00   0.01  -0.00 
  93   6    -0.00  -0.00   0.01    -0.03   0.01  -0.01     0.04  -0.01   0.02 
  94   6     0.00  -0.02  -0.02     0.01  -0.02  -0.03    -0.60   0.24  -0.26 
  95   7     0.03   0.01  -0.01    -0.00  -0.05   0.08     0.01  -0.00   0.01 
  96   8    -0.00   0.00   0.00     0.00   0.00   0.01     0.35  -0.12   0.18 
  97   1     0.02  -0.00   0.01     0.14   0.05  -0.02    -0.16  -0.06  -0.23 
  98   1    -0.17  -0.05   0.02    -0.33  -0.07   0.15     0.02   0.01   0.02 
  99   6     0.00  -0.00  -0.00     0.00  -0.01  -0.00    -0.01  -0.01  -0.03 
 100   6    -0.00  -0.01   0.00     0.01   0.02  -0.01     0.00   0.03  -0.01 
 101   7     0.00   0.01   0.02    -0.02   0.02   0.02     0.08  -0.04   0.02 
 102   8    -0.00   0.00  -0.00    -0.00  -0.00   0.00     0.00  -0.00   0.01 
 103   1     0.00  -0.00   0.00     0.00  -0.00   0.00     0.00  -0.00   0.00 
                      7                      8                     9 
                     a                      a                      a  
 Frequencies --  1652.2395              1676.9297              1668.1895 
 Red. masses --     0.0000                 0.0000                 0.0000 
 Frc consts  --     0.0000                 0.0000                 0.0000 
 IR Inten    --     0.0000                 0.0000                 0.0000 
 Raman Activ --     0.0000                 0.0000                 0.0000 
 Depolar     --     0.0000                 0.0000                 0.0000 
 Atom AN      X      Y      Z        X      Y      Z        X      Y      Z 
   1   6     0.00  -0.01  -0.00    -0.00  -0.00   0.00     0.01   0.00   0.01 
   2   1    -0.00  -0.01   0.00     0.00   0.00   0.00    -0.00   0.01   0.00 
   3   6     0.00  -0.00   0.01     0.01   0.02  -0.00    -0.00   0.00   0.00 
   4   1     0.01   0.01   0.00    -0.06  -0.12   0.02    -0.00  -0.00  -0.00 
   5   1    -0.05  -0.05  -0.03    -0.10   0.02  -0.00     0.01   0.00  -0.00 
   6   1     0.04   0.01   0.01    -0.03   0.00   0.01    -0.00  -0.00   0.00 
   7   6     0.00  -0.00  -0.00     0.00  -0.01  -0.00    -0.03  -0.02  -0.02 
   8   6    -0.00  -0.00  -0.00     0.00   0.00  -0.01     0.01  -0.00  -0.01 
   9   7     0.01   0.03   0.01    -0.00   0.02   0.01     0.09  -0.03  -0.00 
  10   8     0.00   0.00   0.00     0.00   0.00   0.00     0.00   0.01   0.01 
  11   1     0.01   0.01   0.00     0.01   0.01   0.02     0.03   0.15   0.08 
  12   1    -0.06  -0.18  -0.06    -0.02  -0.13  -0.10     0.03  -0.34  -0.15 
  13   7     0.05   0.05   0.07     0.01  -0.01   0.01    -0.00  -0.00   0.00 
  14   8     0.01  -0.00   0.00     0.04  -0.30   0.32    -0.00   0.00  -0.00 
  15   1    -0.04  -0.13   0.03    -0.12   0.11  -0.07     0.00   0.00   0.00 
  16   1     0.15   0.32  -0.07     0.02  -0.01   0.01     0.00   0.01  -0.00 
  17   6    -0.01   0.00   0.01    -0.03   0.02  -0.01     0.05  -0.01  -0.00 
  18   6    -0.00  -0.03  -0.01    -0.00  -0.03  -0.01    -0.72   0.20  -0.02 
  19   6    -0.00  -0.00  -0.00    -0.00  -0.00   0.00    -0.00  -0.00  -0.00 
  20   1     0.00  -0.00   0.00     0.00  -0.00  -0.00     0.00  -0.00  -0.00 
  21   1     0.00   0.00  -0.00     0.00   0.00  -0.00     0.00   0.00  -0.00 
  22   1    -0.00   0.00   0.00    -0.00  -0.00   0.00    -0.00   0.00   0.00 
  23   6     0.01  -0.01  -0.01     0.00   0.00  -0.00     0.00  -0.00  -0.00 
  24   1    -0.02   0.07  -0.04     0.00  -0.00  -0.00    -0.00  -0.00   0.00 
  25   6     0.00   0.00   0.00     0.01  -0.01   0.01    -0.01   0.01   0.01 
  26   1    -0.00   0.00  -0.00    -0.00   0.01  -0.00     0.11  -0.05  -0.10 
  27   1    -0.00  -0.00  -0.00     0.01  -0.02  -0.07    -0.05  -0.09  -0.06 
  28   1    -0.00  -0.01  -0.01    -0.01   0.01   0.03    -0.01  -0.03  -0.02 
  29   1     0.02   0.06   0.01     0.00   0.00  -0.01     0.00  -0.03   0.02 
  30   1    -0.01  -0.00  -0.01    -0.00  -0.00   0.00    -0.01  -0.00   0.00 
  31   8    -0.00   0.00  -0.00    -0.00  -0.00   0.00    -0.00  -0.00   0.00 
  32   1    -0.04   0.02   0.01    -0.00   0.00  -0.00    -0.02   0.06  -0.04 
  33   7     0.03   0.00  -0.01    -0.01  -0.05   0.08     0.02   0.00   0.00 
  34   8    -0.00   0.00   0.00     0.01   0.00   0.00     0.43  -0.10   0.03 
  35   1     0.03   0.00   0.01     0.14  -0.02  -0.05    -0.08  -0.02  -0.03 
  36   1    -0.18  -0.01   0.03    -0.33  -0.03   0.14    -0.01   0.02   0.02 
  37   1     0.00   0.02  -0.00     0.00  -0.00  -0.00    -0.00   0.00   0.00 
  38   1    -0.05   0.08   0.07    -0.00   0.00   0.00    -0.00   0.00   0.00 
  39   6     0.00   0.02  -0.03     0.00  -0.03   0.03     0.00  -0.00   0.00 
  40   6    -0.03   0.00   0.01    -0.02   0.48  -0.56    -0.00   0.00   0.00 
  41   6     0.00   0.00  -0.00     0.00  -0.00  -0.00     0.00   0.00  -0.00 
  42   1    -0.00  -0.00  -0.00    -0.00   0.00   0.00    -0.00   0.00   0.00 
  43   1    -0.05   0.11  -0.26    -0.00  -0.00   0.00     0.00  -0.00   0.00 
  44   1    -0.00  -0.00   0.00     0.00  -0.00  -0.00     0.00  -0.00  -0.00 
  45   1    -0.00   0.00   0.00     0.00   0.00  -0.00     0.00   0.00   0.00 
  46   1     0.00  -0.00   0.03    -0.00  -0.00  -0.00    -0.00   0.00   0.00 
  47   6     0.00   0.00   0.00    -0.00   0.00   0.00    -0.00   0.00   0.00 
  48   6     0.00  -0.00   0.00     0.00  -0.00  -0.00     0.00  -0.00  -0.00 
  49   7    -0.00   0.00  -0.00    -0.00   0.00  -0.00    -0.00   0.00  -0.00 
  50   8    -0.00   0.00  -0.00    -0.00   0.00   0.00    -0.00   0.00  -0.00 
  51   1    -0.00   0.00  -0.00     0.00  -0.00  -0.00     0.00  -0.00  -0.00 
  52   1    -0.00  -0.00   0.00    -0.00   0.00   0.00    -0.00   0.00   0.00 
  53   6     0.00  -0.00   0.00    -0.00  -0.00   0.00     0.00  -0.00   0.00 
  54   6     0.00   0.00   0.00     0.00   0.00  -0.00     0.00   0.00   0.00 
  55   7    -0.00   0.00   0.00    -0.00   0.00   0.00    -0.00   0.00   0.00 
  56   8    -0.00  -0.00  -0.00    -0.00  -0.00  -0.00    -0.00  -0.00  -0.00 
  57   1    -0.00   0.00   0.00    -0.00   0.00  -0.00    -0.00   0.00  -0.00 
  58   1     0.00  -0.00  -0.00    -0.00  -0.00  -0.00    -0.00  -0.00  -0.00 
  59   6     0.00  -0.00   0.00     0.00   0.00   0.00     0.00  -0.00   0.00 
  60   6     0.00  -0.00   0.00     0.00   0.00   0.00    -0.00   0.00   0.00 
  61   7    -0.00  -0.00  -0.00    -0.00  -0.00   0.00     0.00   0.00  -0.00 
  62   8    -0.00   0.00  -0.00    -0.00   0.00  -0.00    -0.00   0.00  -0.00 
  63   1     0.00  -0.00   0.00    -0.00  -0.00   0.00     0.00  -0.00   0.00 
  64   1     0.00   0.00   0.00     0.00   0.00  -0.00    -0.00   0.00   0.00 
  65   6     0.00   0.00  -0.00    -0.00   0.00  -0.00    -0.00   0.00  -0.00 
  66   1    -0.00  -0.00  -0.00     0.00  -0.00  -0.00     0.00  -0.00  -0.00 
  67   1    -0.00   0.00   0.00     0.00   0.00   0.00     0.00   0.00   0.00 
  68   1    -0.00  -0.00  -0.00    -0.00   0.00  -0.00    -0.00   0.00  -0.00 
  69   6    -0.00   0.00   0.00     0.00  -0.00  -0.00     0.00   0.00  -0.00 
  70   1     0.00  -0.00   0.00    -0.00  -0.00  -0.00    -0.00  -0.00  -0.00 
  71   1     0.00   0.00  -0.00    -0.00  -0.00   0.00    -0.00  -0.00   0.00 
  72   1     0.00  -0.00  -0.00    -0.00   0.00   0.00    -0.00   0.00   0.00 
  73   6    -0.00   0.00   0.00    -0.00   0.00   0.00    -0.00   0.00   0.00 
  74   1    -0.00   0.00  -0.00     0.00  -0.00   0.00     0.00  -0.00   0.00 
  75   1     0.00   0.00  -0.00     0.00  -0.00   0.00    -0.00  -0.00   0.00 
  76   1     0.00   0.00   0.00     0.00   0.00  -0.00    -0.00   0.00  -0.00 
  77   6    -0.00  -0.00  -0.00    -0.00  -0.00  -0.00    -0.00  -0.00  -0.00 
  78   1    -0.00  -0.00   0.00    -0.00  -0.00   0.00    -0.00  -0.00   0.00 
  79   1    -0.00  -0.00  -0.00    -0.00  -0.00   0.00    -0.00  -0.00  -0.00 
  80   1    -0.00   0.00  -0.00     0.00   0.00  -0.00    -0.00   0.00  -0.00 
  81   6     0.00   0.00   0.00     0.00  -0.00   0.00     0.00   0.00   0.00 
  82   6    -0.00  -0.00   0.00     0.00   0.00   0.00     0.00  -0.00   0.00 
  83   7     0.00   0.00  -0.00     0.00   0.00   0.00     0.00  -0.00  -0.00 
  84   8    -0.00   0.00  -0.00    -0.00   0.00  -0.00    -0.00   0.00  -0.00 
  85   1     0.00   0.00  -0.00     0.00  -0.00   0.00     0.00   0.00  -0.00 
  86   1    -0.00  -0.00  -0.00    -0.00  -0.00  -0.00    -0.00   0.00   0.00 
  87   6     0.00  -0.00   0.00     0.00  -0.00   0.00     0.00  -0.00   0.00 
  88   6    -0.00  -0.00   0.00     0.00   0.00  -0.00    -0.00   0.00   0.00 
  89   7    -0.00   0.00  -0.00    -0.00  -0.00   0.00    -0.00   0.00   0.00 
  90   8    -0.00  -0.00  -0.00    -0.00  -0.00   0.00    -0.00  -0.00  -0.00 
  91   1     0.00   0.00   0.00    -0.00   0.00  -0.00     0.00   0.00   0.00 
  92   1    -0.00  -0.00  -0.00     0.00   0.00  -0.00    -0.00   0.00  -0.00 
  93   6     0.00   0.00   0.00     0.00  -0.00   0.00    -0.00  -0.00   0.00 
  94   6     0.00  -0.00   0.00     0.00  -0.00   0.00    -0.00   0.00   0.00 
  95   7     0.00   0.00  -0.00    -0.00  -0.00   0.00     0.00  -0.00  -0.00 
  96   8    -0.00   0.00  -0.00     0.00   0.00  -0.00     0.00  -0.00  -0.00 
  97   1     0.00   0.00   0.00    -0.00  -0.00   0.00    -0.00  -0.00  -0.00 
  98   1    -0.01   0.00  -0.00     0.00   0.00  -0.00    -0.00   0.00   0.00 
  99   6     0.02   0.01   0.04    -0.00  -0.00   0.00     0.00   0.00   0.00 
 100   6    -0.35  -0.21  -0.56     0.00   0.00   0.00     0.00  -0.00   0.00 
 101   7     0.01  -0.00   0.01    -0.00   0.00  -0.00     0.00  -0.00  -0.00 
 102   8     0.19   0.09   0.34    -0.00   0.00  -0.00    -0.00   0.00  -0.00 
 103   1     0.00  -0.00   0.00     0.00  -0.00   0.00     0.00  -0.00   0.00 
